Molcas 8: New capabilities for multiconfigurational quantum chemical calculations across the periodic table; Cooperative insertion of CO2 in diamine-appended metal-organic frameworks; OpenMolcas: From source code to insight; On the Mechanism of the cis−trans Isomerization in the Lowest Electronic States of Azobenzene:  S0, S1, and T1; The restricted active space followed by second-order perturbation theory method: Theory and application to the study of CuO2 and Cu2O2 systems; NWChem: Past, present, and future; Oxidation of ethane to ethanol by N2O in a metal–organic framework with coordinatively unsaturated iron(II) sites; Multiconfiguration pair-density functional theory; Local properties of quantum chemical systems: The LoProp approach; Quantum chemical calculations show that the uranium molecule U2 has a quintuple bond; Ab initio carbon capture in open-site metal–organic frameworks; Reaching the maximum multiplicity of the covalent chemical bond; Are Zr 6-based MOFs water stable? Linker hydrolysis vs. capillary-force-driven channel collapse; A Quantum Chemical Study of the Quintuple Bond between Two Chromium Centers in [PhCrCrPh]: trans‐Bent versus Linear Geometry; Sintering-resistant single-site nickel catalyst supported by metal–organic framework; Methane oxidation to methanol catalyzed by Cu-oxo clusters stabilized in NU-1000 metal–organic framework; The Ru− Hbpp water oxidation catalyst; Cerium metal–organic framework for photocatalysis; Using nature’s blueprint to expand catalysis with Earth-abundant metals; Defining the Proton Topology of the Zr6-Based Metal–Organic Framework NU-1000
