MOLCAS 7: the next generation; MOLCAS 7: the next generation; Molcas 8: New capabilities for multiconfigurational quantum chemical calculations across the periodic table; Molcas 8: New capabilities for multiconfigurational quantum chemical calculations across the periodic table; Reparameterization of hybrid functionals based on energy differences of states of different multiplicity; Quantum electrodynamics; The generalized douglas–kroll transformation; Elucidating reaction mechanisms on quantum computers; Quantum chemical calculation of vibrational spectra of large molecules—Raman and IR spectra for Buckminsterfullerene; Exact decoupling of the Dirac Hamiltonian. II. The generalized Douglas–Kroll–Hess transformation up to arbitrary order; OpenMolcas: From source code to insight; Relativistic quantum chemistry: the fundamental theory of molecular science; Relativistic quantum chemistry: the fundamental theory of molecular science; Assertion and validation of the performance of the  functional for the first transition metal row and the G2 test set; MOLPRO, version 2010.1, a package of ab initio programs; Exact decoupling of the Dirac Hamiltonian. I. General theory; Theoretical Study of the Fe(phen)2(NCS)2 Spin-Crossover Complex with Reparametrized Density Functionals; MOLPRO, version 2012.1, a package of ab initio programs; MOLPRO, version 2015.1, a package of ab initio programs; Modern quantum chemistry with [Open] Molcas
